LAMMPS (23 Jun 2022 - Update 3)
  using 1 OpenMP thread(s) per MPI task
Reading data file ...
  orthogonal box = (-10.40103 -10.40103 -10.40103) to (10.40103 10.40103 10.40103)
  1 by 1 by 1 MPI processor grid
  reading atoms ...
  900 atoms
  scanning bonds ...
  2 = max bonds/atom
  scanning angles ...
  1 = max angles/atom
  reading bonds ...
  600 bonds
  reading angles ...
  300 angles
Finding 1-2 1-3 1-4 neighbors ...
  special bond factors lj:    0        0        0       
  special bond factors coul:  0        0        0       
     2 = max # of 1-2 neighbors
     1 = max # of 1-3 neighbors
     1 = max # of 1-4 neighbors
     2 = max # of special neighbors
  special bonds CPU = 0.000 seconds
  read_data CPU = 0.007 seconds
PPPM initialization ...
  using 12-bit tables for long-range coulomb (src/src/kspace.cpp:342)
  G vector (1/distance) = 0.30463625
  grid = 18 18 18
  stencil order = 5
  estimated absolute RMS force accuracy = 0.0031438291
  estimated relative force accuracy = 9.4675479e-06
  using double precision FFTW3
  3d grid and FFT values/proc = 15625 5832
Generated 0 of 1 mixed pair_coeff terms from geometric mixing rule
Neighbor list info ...
  update every 10 steps, delay 0 steps, check yes
  max neighbors/atom: 2000, page size: 100000
  master list distance cutoff = 12
  ghost atom cutoff = 12
  binsize = 6, bins = 4 4 4
  1 neighbor lists, perpetual/occasional/extra = 1 0 0
  (1) pair lj/cut/coul/long, perpetual
      attributes: half, newton on
      pair build: half/bin/newton
      stencil: half/bin/3d
      bin: standard
Setting up Verlet run ...
  Unit style    : real
  Current step  : 0
  Time step     : 0.5
Per MPI rank memory allocation (min/avg/max) = 11.11 | 11.11 | 11.11 Mbytes
   Step          Temp          Press          Volume    
         0   293.15        -594.32841      9001.5859    
       100   640.72981     -6665.728       9201.0124    
       200   533.56893      5851.1107      9414.0944    
       300   436.72376      8501.3015      9496.8334    
       400   362.55484      7780.6142      9395.4598    
       500   328.19146      4753.4209      9211.6518    
       600   311.02695     -2019.7595      9074.7318    
       700   297.33751     -6431.1871      8927.3129    
       800   281.36289     -8130.2347      8730.6908    
       900   280.36361     -4752.254       8554.3052    
      1000   293.24067     -1986.0957      8505.0274    
      1100   296.76197     -704.7317       8554.5094    
      1200   302.75617      2099.3261      8603.8885    
      1300   290.04138      4218.7258      8612.921     
      1400   297.97763      6628.4337      8615.2295    
      1500   291.97819      2933.8174      8682.4732    
      1600   287.09985      1002.0764      8728.9496    
      1700   293.10497     -1211.1362      8737.615     
      1800   294.59784     -2584.0615      8749.8332    
      1900   299.11458     -3400.3218      8791.8789    
      2000   290.51847     -3042.0597      8853.3686    
      2100   294.83392     -3972.4331      8889.3894    
      2200   295.19532     -310.92455      8818.7786    
      2300   304.3278       2059.9858      8726.7991    
      2400   300.95835      3499.4436      8660.3066    
      2500   286.4403       3011.4318      8618.7239    
      2600   281.25873      2164.3384      8571.9082    
      2700   291.33636      479.9891       8509.8807    
      2800   293.73218      1922.6517      8461.9588    
      2900   304.76332     -2543.4036      8502.8624    
      3000   291.57913     -2099.8905      8538.6305    
      3100   292.1148      -1823.6121      8586.7997    
      3200   293.05689     -1476.5488      8643.5967    
      3300   291.24887     -784.58489      8672.6989    
      3400   283.81006      2388.9783      8666.5715    
      3500   293.67716      2522.9704      8695.9247    
      3600   305.42707      1133.1633      8749.1245    
      3700   291.88212      415.92159      8779.6348    
      3800   301.35219     -901.80815      8792.0173    
      3900   288.22421     -1132.393       8783.8994    
      4000   287.96101     -2029.8377      8769.0734    
      4100   279.25254     -850.95604      8726.3165    
      4200   283.23163     -544.46503      8691.2315    
      4300   301.13812     -66.591137      8677.8225    
      4400   298.01482     -558.63374      8680.9239    
      4500   296.77249     -143.51565      8671.5745    
      4600   286.55686      1205.297       8646.3375    
      4700   285.7731       479.37048      8626.9354    
      4800   305.20002      1978.2183      8585.5727    
      4900   291.98305      908.91117      8573.266     
      5000   298.48331      376.16845      8593.7573    
      5100   292.89208     -892.59173      8636.7669    
      5200   278.53161     -645.17758      8661.7353    
      5300   305.68841     -926.79576      8676.3845    
      5400   290.30565      419.51498      8688.116     
      5500   286.8313      -19.575125      8747.2786    
      5600   284.29504      73.632075      8814.4382    
      5700   295.79619      269.97558      8836.5638    
      5800   289.74251      1042.6792      8812.0096    
      5900   297.79095     -437.13307      8761.4906    
      6000   292.92221      1288.1831      8678.077     
      6100   295.74598      403.24682      8641.7553    
      6200   284.84748      409.54111      8634.3617    
      6300   295.46169     -478.70146      8649.3694    
      6400   289.86966      344.64646      8658.5057    
      6500   293.33715      307.334        8656.1285    
      6600   299.60985      410.3975       8660.3949    
      6700   290.67528      2536.9547      8680.8383    
      6800   276.9386      -1016.9718      8780.72      
      6900   285.74068     -614.25268      8836.8599    
      7000   293.97558      183.20193      8833.3967    
      7100   302.61577     -1906.1184      8830.2112    
      7200   294.98048      485.49801      8785.3334    
      7300   285.9677       696.14136      8794.1698    
      7400   296.9419      -395.49373      8848.8126    
      7500   292.19936     -1314.3675      8858.5443    
      7600   298.78985      1060.4421      8785.0801    
      7700   293.9164       1721.633       8707.8604    
      7800   304.52549      140.60564      8677.5969    
      7900   302.26746     -362.51977      8667.3377    
      8000   296.3182      -1632.6834      8665.4578    
      8100   298.25501     -870.83149      8640.9542    
      8200   296.84774     -313.52739      8630.7802    
      8300   287.4095      -1060.5381      8638.6627    
      8400   285.98274     -357.33356      8620.8462    
      8500   300.78938      1763.3449      8584.3591    
      8600   306.45075      2463.9541      8563.151     
      8700   292.08832      1164.9211      8585.9723    
      8800   291.70957      1418.6087      8608.7735    
      8900   289.01101      137.4329       8625.9305    
      9000   292.87982     -189.41812      8611.5511    
      9100   276.76821      363.88615      8607.9857    
      9200   297.22165     -1476.0527      8677.2795    
      9300   289.31811     -1652.553       8745.1446    
      9400   299.61727     -2122.666       8746.3513    
      9500   304.33407     -377.04779      8690.4703    
      9600   304.04233      635.52033      8672.0308    
      9700   292.73304      428.84063      8686.0897    
      9800   284.68072      1408.5108      8692.1356    
      9900   301.30259     -211.5784       8703.0702    
     10000   306.50145      70.008678      8697.2135    
     10100   298.06689      583.44394      8727.6529    
     10200   282.40068     -2145.2802      8791.1009    
     10300   290.24657     -1183.5448      8767.7627    
     10400   291.30512     -34.806793      8701.4369    
     10500   298.7684       1306.0986      8647.3692    
     10600   287.888       -1154.2223      8652.1772    
     10700   277.8649      -977.80787      8628.9611    
     10800   291.74389      1381.141       8551.3573    
     10900   296.60558      556.15224      8507.7006    
     11000   294.07726      152.14163      8524.1917    
     11100   291.35747     -496.90428      8576.9291    
     11200   291.87776      544.26439      8616.7375    
     11300   284.8198      -980.58719      8640.7245    
     11400   277.13199      1022.0637      8608.3226    
     11500   295.84978      2099.5669      8561.8189    
     11600   291.81756      842.71439      8581.3252    
     11700   293.88972     -1481.5783      8613.8815    
     11800   291.23553     -802.03749      8614.1979    
     11900   306.47896     -1013.8549      8614.8199    
     12000   306.5514      -1266.0534      8619.1329    
     12100   303.31634     -1660.4887      8618.6322    
     12200   289.81445     -711.70491      8577.3706    
     12300   286.82458      1075.6582      8529.2276    
     12400   290.88687     -112.06158      8537.2486    
     12500   290.58077      529.77169      8550.0776    
     12600   305.76669      509.65908      8542.2353    
     12700   306.08623     -651.94892      8509.956     
     12800   296.65418     -246.96124      8451.3334    
     12900   309.89148      967.17583      8365.4323    
     13000   287.29632      276.85381      8298.9708    
     13100   294.75334      467.16539      8281.2675    
     13200   295.05517      291.80392      8305.4448    
     13300   297.40675      1597.7713      8367.4996    
     13400   301.02014     -218.43422      8465.6993    
     13500   287.05803      712.53422      8541.5479    
     13600   290.04111      11.680149      8594.4059    
     13700   295.28088      419.92139      8603.9819    
     13800   304.23127     -1490.894       8574.3954    
     13900   282.74827     -882.14921      8463.0915    
     14000   302.63947      2125.7556      8348.1681    
     14100   286.78666      1960.2131      8351.7863    
     14200   278.07847     -1589.5134      8440.7008    
     14300   291.41938     -1587.9601      8486.1262    
     14400   289.51104     -735.08484      8494.9421    
     14500   302.54895     -1577.1747      8476.8859    
     14600   301.67906      367.67636      8422.6684    
     14700   283.80752      953.5641       8402.152     
     14800   287.10952     -390.54215      8412.3413    
     14900   294.47542      1511.6196      8402.9449    
     15000   293.67218      942.28805      8418.4185    
     15100   291.50429      1722.2418      8448.8274    
     15200   299.68652     -1515.7161      8511.0054    
     15300   291.72726     -2199.5615      8529.8446    
     15400   293.28425     -889.53065      8496.6593    
     15500   295.6648      -1579.38        8468.249     
     15600   293.43951     -1463.1399      8431.6214    
     15700   291.07478      1806.1988      8334.6478    
     15800   287.47037      2962.2403      8259.3813    
     15900   293.99328      2327.0205      8249.7032    
     16000   273.67         1256.6602      8252.1251    
     16100   299.30256      1255.3354      8232.4466    
     16200   295.22472      914.88102      8247.4458    
     16300   289.53716     -605.62881      8321.2739    
     16400   290.53717     -2388.1942      8389.6355    
     16500   293.33742     -2587.451       8392.1294    
     16600   288.75303     -944.15827      8360.1255    
     16700   300.16966      749.29489      8346.196     
     16800   296.79849      1958.6301      8354.193     
     16900   279.84799     -83.947896      8402.798     
     17000   290.51186      498.65581      8398.3529    
     17100   296.99224      1406.2167      8376.6082    
     17200   293.87947      695.68044      8401.0015    
     17300   282.54915      422.21574      8449.3392    
     17400   285.80782     -2268.5062      8494.9068    
     17500   283.58422     -339.38654      8463.7101    
     17600   308.14643      1453.9628      8431.0224    
     17700   308.329        15.536319      8431.7933    
     17800   290.49331      1341.8948      8422.2992    
     17900   287.71909      193.25993      8417.0183    
     18000   292.51742      292.59213      8396.9904    
     18100   295.44773     -482.28665      8400.7892    
     18200   290.48225     -881.77144      8448.5717    
     18300   303.62041     -1300.2472      8509.6681    
     18400   312.15566     -268.09351      8558.1787    
     18500   292.22176      218.89752      8593.5587    
     18600   280.89703     -1344.5829      8600.9395    
     18700   285.71069      1016.9071      8526.7261    
     18800   308.11402      1846.027       8482.5915    
     18900   300.2627       712.55241      8513.3403    
     19000   294.41105     -1286.7748      8560.9141    
     19100   299.08482     -670.09278      8548.6168    
     19200   290.37126     -89.801259      8482.2271    
     19300   287.06881      154.04329      8420.5483    
     19400   295.14446     -450.70737      8426.2296    
     19500   283.01711     -2888.6338      8465.4384    
     19600   293.09077     -1353.0336      8422.0317    
     19700   306.64935     -167.76706      8351.2048    
     19800   303.19952      752.08258      8314.3816    
     19900   285.76849      1910.9444      8306.4938    
     20000   267.49175      1501.1102      8316.7539    
     20100   275.73756      2617.4978      8323.5003    
     20200   287.41105     -453.4992       8347.2931    
     20300   287.21557      168.99404      8331.5559    
     20400   298.36902     -1623.4166      8320.3571    
     20500   287.99512     -1712.2766      8269.9269    
     20600   286.18382      495.28769      8220.4409    
     20700   288.71805      92.232017      8266.1353    
     20800   280.13645     -1289.3281      8337.6299    
     20900   291.75786     -184.22667      8354.1342    
     21000   296.08367      469.7176       8343.055     
     21100   295.38437      458.89064      8347.442     
     21200   294.7963      -1103.7117      8369.7453    
     21300   294.58125     -582.99317      8368.836     
     21400   292.47694      975.64014      8356.5824    
     21500   303.81267      209.27803      8361.0511    
     21600   302.2232       2058.1869      8362.04      
     21700   294.15831      477.33682      8398.4342    
     21800   285.627       -693.43823      8435.1852    
     21900   284.41397     -427.77055      8467.0249    
     22000   296.97534     -1147.7848      8499.3086    
     22100   295.25115      916.46657      8496.924     
     22200   310.48005      1204.1442      8537.564     
     22300   288.65444     -1220.6296      8641.8738    
     22400   302.16651     -3040.8846      8671.213     
     22500   295.0841      -257.49457      8563.0521    
     22600   297.05422      1783.6767      8466.9674    
     22700   285.67952      1518.2891      8474.8154    
     22800   287.34503     -761.76709      8546.4722    
     22900   287.41586      71.771377      8559.8461    
     23000   292.20223      279.59764      8540.1118    
     23100   297.16027      1301.5077      8522.7638    
     23200   298.64921      1087.5153      8520.5414    
     23300   284.7054       198.42627      8531.0372    
     23400   278.03817     -638.34125      8543.2799    
     23500   275.37964     -860.57044      8519.8086    
     23600   296.67129      1798.7581      8435.4869    
     23700   296.6066       1194.3833      8383.3209    
     23800   289.73807     -399.07456      8376.3171    
     23900   288.99911      1248.2398      8374.6227    
     24000   300.26035     -1783.2445      8449.674     
     24100   288.67068     -1380.4824      8519.2886    
     24200   280.6997      -2586.5901      8557.6322    
     24300   293.05913      3.7541205      8509.381     
     24400   294.43637      1843.1761      8467.877     
     24500   301.82237      989.61598      8464.8855    
     24600   305.16985      327.7196       8476.857     
     24700   289.86708      266.82641      8466.9036    
     24800   292.58123     -12.931925      8450.1596    
     24900   287.97532     -1041.9086      8449.5442    
     25000   312.7455      -1668.5864      8458.5561    
     25100   306.0626      -193.22262      8456.0167    
     25200   290.16604     -427.92344      8460.8779    
     25300   290.02958     -560.73032      8444.7025    
     25400   298.82232      418.79829      8399.428     
     25500   291.90058      1698.4122      8385.5727    
     25600   284.83523     -91.794945      8422.5821    
     25700   308.63868      271.4793       8435.6922    
     25800   294.01204      1177.3631      8429.7738    
     25900   294.71198     -1803.0197      8490.2234    
     26000   289.08182     -909.95152      8539.8908    
     26100   293.49643     -2373.8292      8591.2267    
     26200   307.78916     -87.398096      8568.5683    
     26300   295.44951      2032.5271      8528.8829    
     26400   285.87143      1047.8134      8529.1617    
     26500   288.23079      1083.3908      8557.7497    
     26600   292.85138      191.96536      8603.6274    
     26700   295.62454      49.597229      8656.72      
     26800   303.10157     -1642.9526      8693.9943    
     26900   285.6817      -1059.439       8680.4535    
     27000   296.95771     -746.47714      8660.8205    
     27100   282.5129      -937.28351      8647.4192    
     27200   291.26579     -632.04158      8601.6126    
     27300   293.77189      757.99513      8524.6887    
     27400   296.34438      1558.3514      8465.4948    
     27500   292.31481      2614.2252      8455.012     
     27600   288.40158      42.977071      8511.5307    
     27700   269.67122     -530.27522      8541.4854    
     27800   292.11452     -579.96994      8508.5963    
     27900   302.03858      617.37508      8445.2099    
     28000   299.53874     -462.72094      8408.4717    
     28100   295.64845     -158.85827      8420.5104    
     28200   284.04627     -1947.3741      8500.018     
     28300   280.03589     -3305.7878      8565.1575    
     28400   286.1983      -724.69022      8545.9314    
     28500   299.03957      1153.4598      8541.4323    
     28600   297.62346     -494.94616      8609.7083    
     28700   292.71253      650.30377      8641.4552    
     28800   283.3223       622.93374      8637.9413    
     28900   284.14882      594.72616      8643.2871    
     29000   297.41999     -9.2038948      8638.5978    
     29100   297.00021      262.64973      8615.9813    
     29200   294.5937      -351.88053      8619.6861    
     29300   292.98034     -323.05142      8651.9697    
     29400   285.96564     -674.73945      8706.4017    
     29500   308.19506     -834.62413      8732.7551    
     29600   293.64537      86.154136      8679.6554    
     29700   296.35047     -170.89929      8590.3841    
     29800   288.47165      1823.9965      8448.6348    
     29900   291.93958      3407.3962      8365.0218    
     30000   291.18234     -168.91346      8420.9479    
     30100   299.99567      288.89114      8501.2989    
     30200   308.41001     -370.93782      8550.7449    
     30300   286.80765     -914.12874      8557.9604    
     30400   287.45368     -1196.1487      8526.0752    
     30500   297.3661      -1040.516       8463.0253    
     30600   285.93553      1459.5195      8400.217     
     30700   296.32258      1824.5565      8400.4408    
     30800   298.28748      80.953735      8472.6808    
     30900   286.30193     -498.86612      8499.0705    
     31000   289.5722       1412.6791      8468.8317    
     31100   291.32145      364.00477      8492.0493    
     31200   294.10012     -2781.6648      8564.9209    
     31300   293.93397     -2895.8333      8578.6655    
     31400   302.00134     -499.93522      8528.3526    
     31500   295.85564      247.58865      8503.4881    
     31600   289.15727      1044.3069      8498.4147    
     31700   291.44747      471.07888      8475.9399    
     31800   287.005        1708.6029      8428.137     
     31900   300.367        1615.5301      8398.5117    
     32000   279.37936      1750.4712      8408.9529    
     32100   298.80691     -1402.9625      8484.8877    
     32200   283.44594     -1659.5958      8513.9276    
     32300   286.7156      -2081.6297      8483.4441    
     32400   299.07977      814.57529      8448.9954    
     32500   302.2051       235.84174      8497.643     
     32600   283.04756     -1671.2044      8579.4581    
     32700   290.60437      121.61046      8589.2124    
     32800   307.30278      283.27395      8545.7774    
     32900   299.40729      2073.6432      8470.8674    
     33000   291.37131      563.73761      8392.7171    
     33100   284.46978      3301.4811      8269.9617    
     33200   292.43161      1374.6271      8237.3503    
     33300   294.46093      314.98373      8297.3388    
     33400   292.11317     -933.53293      8360.1983    
     33500   298.70655     -1383.9777      8391.6167    
     33600   315.06797     -1733.39        8429.4469    
     33700   290.8017      -863.56962      8456.8048    
     33800   290.76503     -619.84279      8468.5209    
     33900   282.02616      1296.8079      8440.7921    
     34000   290.23181      2418.6173      8413.8462    
     34100   297.29499      1468.3241      8432.029     
     34200   303.4911       686.02765      8415.5531    
     34300   287.59798      2584.2886      8346.8272    
     34400   291.71388     -61.329684      8337.4594    
     34500   286.53959     -2433.4196      8339.2495    
     34600   297.66059     -221.66719      8315.3436    
     34700   289.70883     -2243.054       8354.3596    
     34800   287.31465     -2660.1162      8413.1049    
     34900   285.56301     -1116.521       8433.7392    
     35000   280.82734      2019.1751      8438.9781    
     35100   295.79585      24.610455      8494.6037    
     35200   298.39398      275.74809      8514.1033    
     35300   292.26658      1760.6997      8470.314     
     35400   305.8017      -100.70575      8419.2214    
     35500   306.78202      908.00004      8366.0586    
     35600   286.2603      -985.22432      8366.3474    
     35700   283.41536     -1825.8104      8326.9487    
     35800   295.85762      1564.606       8217.1383    
     35900   289.78191      2757.9116      8189.1283    
     36000   284.48917     -1074.1829      8305.4124    
     36100   289.1473      -2301.6869      8400.1158    
     36200   296.92924      333.42119      8396.8725    
     36300   298.82745      1651.622       8389.9399    
     36400   293.65841     -291.5479       8434.8261    
     36500   286.07369     -439.95585      8473.504     
     36600   298.39943      225.11118      8471.5873    
     36700   312.11521      1236.5606      8433.3378    
     36800   300.22833      2081.0067      8387.3452    
     36900   300.04237      1207.8542      8366.9945    
     37000   296.07294     -1176.7283      8368.0395    
     37100   280.39206     -1583.9542      8369.4793    
     37200   282.38341     -799.66633      8367.546     
     37300   299.83958      307.0986       8377.8845    
     37400   285.86043      36.11887       8420.1858    
     37500   293.43049      368.75092      8467.8344    
     37600   302.49218      451.71369      8510.289     
     37700   312.90534     -895.01139      8547.3868    
     37800   282.9657       1231.5631      8540.929     
     37900   289.42267     -102.26497      8544.2403    
     38000   299.41562      226.72413      8550.4102    
     38100   292.28508      298.82607      8565.3194    
     38200   302.95085     -1709.0743      8633.3155    
     38300   296.14057     -2302.5969      8673.1412    
     38400   288.39871     -589.66792      8600.4634    
     38500   291.63531      3404.2924      8477.9533    
     38600   282.46024      1156.7808      8472.1769    
     38700   283.69701     -1290.0111      8520.7624    
     38800   292.22201      784.29487      8517.6422    
     38900   296.13192      1164.0463      8556.2456    
     39000   288.07686     -1271.2442      8652.2618    
     39100   290.9201      -1570.6008      8689.5869    
     39200   294.53679     -137.43801      8639.816     
     39300   300.36309      1014.6781      8539.8382    
     39400   287.0742       1946.2382      8488.5758    
     39500   285.14627      949.21897      8508.5412    
     39600   281.75758      442.4035       8565.7478    
     39700   285.7939      -2197.7003      8605.2673    
     39800   301.34789     -1585.5417      8530.6063    
     39900   304.10572      1882.4651      8397.9124    
     40000   299.58358     -371.77422      8331.7575    
     40100   300.48919     -241.26316      8294.7611    
     40200   291.52458      44.857315      8298.0035    
     40300   295.17336     -904.94567      8326.6415    
     40400   285.24033     -1715.0594      8326.1382    
     40500   305.18519      148.78867      8262.7463    
     40600   294.52244      2720.0236      8170.2173    
     40700   288.72563      1170.7908      8182.7876    
     40800   292.59051      787.18646      8245.8656    
     40900   285.82323     -1148.2098      8312.0947    
     41000   288.97512     -986.27963      8308.8359    
     41100   300.68612      265.20567      8237.9478    
     41200   288.7012       1191.0134      8203.0392    
     41300   280.98235      285.64979      8255.244     
     41400   288.97119     -1245.5933      8334.2875    
     41500   305.67197     -342.57992      8351.5502    
     41600   294.48574     -644.65298      8352.6923    
     41700   296.11486     -1513.4763      8337.4373    
     41800   288.14287      270.93637      8282.0367    
     41900   282.27887     -865.07439      8236.6514    
     42000   286.55241      604.49597      8193.2053    
     42100   298.66929      441.709        8190.7179    
     42200   291.13079      758.1045       8191.6003    
     42300   291.73034      401.16157      8215.8363    
     42400   305.76648     -900.7189       8260.1866    
     42500   283.65734      789.87914      8287.753     
     42600   289.78814     -1806.236       8310.4998    
     42700   298.56655     -457.26423      8296.5461    
     42800   293.72422     -1147.5392      8293.0969    
     42900   292.53373     -28.236325      8302.4037    
     43000   288.67748     -950.58645      8364.6188    
     43100   277.90785     -2134.3618      8423.9737    
     43200   278.07381     -868.26212      8396.8299    
     43300   300.7506       405.29212      8331.1062    
     43400   300.83262      1429.4625      8290.2858    
     43500   291.75412      857.50629      8285.4587    
     43600   280.16906      1059.8234      8324.2712    
     43700   290.20333     -9.0700867      8382.3873    
     43800   296.57305     -726.16475      8428.1717    
     43900   289.38653     -247.62157      8431.1438    
     44000   295.23744     -594.18727      8438.3127    
     44100   279.82129     -2082.0233      8457.3532    
     44200   284.4548      -1895.0679      8427.4299    
     44300   298.57346      1963.678       8356.7019    
     44400   291.99607      1878.0229      8347.0346    
     44500   291.02428      891.90008      8394.1939    
     44600   296.17054      623.20879      8443.0436    
     44700   298.08215      1113.1868      8479.6358    
     44800   283.0882       66.565059      8515.9632    
     44900   284.66622     -2879.4446      8568.2578    
     45000   302.50302     -2433.2096      8550.289     
     45100   292.6216      -625.27673      8511.5102    
     45200   293.96937      105.02736      8536.384     
     45300   294.45421      179.15759      8579.4992    
     45400   300.18038      102.85797      8614.7935    
     45500   303.87039     -790.6621       8626.8071    
     45600   294.82455     -704.84406      8557.1037    
     45700   290.58918     -412.76134      8440.5786    
     45800   299.11026     -357.96305      8331.3565    
     45900   292.16588      1796.8884      8236.852     
     46000   299.53289      226.95747      8256.7793    
     46100   294.25185     -2347.364       8345.1758    
     46200   280.50559     -1474.8815      8412.0795    
     46300   293.27825     -1324.5375      8458.2302    
     46400   307.5472       933.25327      8459.3802    
     46500   297.03957      912.28012      8474.7709    
     46600   300.91748      181.52251      8495.3826    
     46700   289.54552      1087.3296      8471.595     
     46800   283.53277      1599.2179      8415.9525    
     46900   297.02581      711.15265      8385.6574    
     47000   307.07769      90.526057      8384.0138    
     47100   296.33913     -2471.8821      8415.7716    
     47200   293.89949     -2507.9674      8416.4653    
     47300   292.01977     -2950.5788      8359.1346    
     47400   296.95503      663.86389      8234.4162    
     47500   297.39519      3493.3163      8183.9829    
     47600   277.1716       1787.5382      8259.0353    
     47700   283.00096      1325.0465      8357.568     
     47800   298.8051      -645.93115      8415.8382    
     47900   284.88531     -1316.4772      8413.5152    
     48000   296.45562     -724.37218      8368.4548    
     48100   297.08443      1307.9234      8365.4067    
     48200   285.05373     -1175.5315      8425.9744    
     48300   280.89284     -1092.9794      8426.8837    
     48400   290.92109      1563.3049      8372.3061    
     48500   295.32811      971.38713      8359.9814    
     48600   283.69774      1730.2131      8370.4333    
     48700   293.90373      1250.8699      8387.7355    
     48800   304.36256      1879.3779      8428.0162    
     48900   294.57333     -2494.5009      8530.0582    
     49000   295.65422     -2043.5905      8585.4107    
     49100   300.58102     -1508.6247      8580.3324    
     49200   290.37144     -1118.9529      8564.1576    
     49300   290.94449      870.31547      8512.6971    
     49400   315.31371      1227.5183      8503.5576    
     49500   305.91661      1361.5309      8549.4597    
     49600   295.72972     -98.821689      8602.3651    
     49700   287.97044      929.30904      8590.9898    
     49800   296.60031      1258.261       8573.6386    
     49900   290.1879       102.0778       8554.9484    
     50000   288.95553     -386.68134      8537.1048    
     50100   277.62814     -730.78993      8523.8294    
     50200   287.58246      198.51748      8503.2203    
     50300   303.46286     -119.84258      8496.4867    
     50400   290.8606       91.492225      8541.0302    
     50500   294.12426     -578.8479       8616.9037    
     50600   288.23487     -1781.1275      8656.8757    
     50700   285.06998     -108.6201       8643.1059    
     50800   282.58596      181.82524      8626.8975    
     50900   296.6781      -845.70687      8624.1297    
     51000   295.08507     -831.94197      8613.2788    
     51100   293.25289     -513.08603      8604.8417    
     51200   292.27779      934.80394      8598.5261    
     51300   302.54267      271.12399      8627.3575    
     51400   282.66144      223.55707      8643.6079    
     51500   286.54708      1303.0593      8582.3525    
     51600   298.21048      2469.182       8509.5772    
     51700   297.44035      1058.0334      8525.9334    
     51800   288.90084     -1644.9913      8636.6982    
     51900   295.49982     -2873.8807      8762.4219    
     52000   290.07812     -1706.6958      8818.6286    
     52100   304.96146      331.03306      8830.5043    
     52200   288.91217     -228.56075      8854.2721    
     52300   291.46288     -912.1866       8871.4657    
     52400   286.85468      245.97287      8844.9011    
     52500   290.06045     -475.754        8784.1019    
     52600   315.81599     -376.2208       8726.0247    
     52700   288.74608      44.918744      8701.4106    
     52800   297.84209     -20.821657      8709.071     
     52900   285.72183     -265.05364      8720.3884    
     53000   295.20354      1247.8104      8742.3445    
     53100   299.64164     -333.77491      8820.4292    
     53200   301.59729     -1196.4268      8854.304     
     53300   300.81732      388.20822      8783.8672    
     53400   288.54137      178.26092      8680.073     
     53500   289.04634     -16.552771      8567.4306    
     53600   294.92551     -336.77436      8475.5619    
     53700   300.04679      651.37702      8442.2484    
     53800   290.75894      21.212096      8501.0486    
     53900   298.64709      601.35609      8599.9319    
     54000   289.1652      -1017.4858      8699.1376    
     54100   285.70301     -1316.6312      8715.6739    
     54200   272.42915      769.65166      8626.7649    
     54300   289.55087      2292.9935      8563.7776    
     54400   293.7983      -176.73051      8577.6364    
     54500   292.08053      1289.5199      8589.731     
     54600   297.24198      96.316085      8638.5368    
     54700   287.48119      389.79707      8699.5086    
     54800   270.69169     -1297.1747      8762.2225    
     54900   290.40131     -1390.1729      8742.3738    
     55000   294.58595      2018.5623      8662.1967    
     55100   300.0379       752.04233      8623.6208    
     55200   286.79702      205.51104      8595.4966    
     55300   283.46119      864.61221      8556.8925    
     55400   309.30581      979.0868       8538.5115    
     55500   302.26224      787.70172      8570.8633    
     55600   281.67028     -883.46845      8613.4916    
     55700   284.22987      658.88537      8627.7692    
     55800   296.38514     -134.72572      8636.5817    
     55900   297.95624     -761.10116      8601.6477    
     56000   301.66316      1273.0636      8514.1573    
     56100   297.67619      286.914        8460.0063    
     56200   296.16147      301.10857      8443.3877    
     56300   286.15571     -584.15148      8502.0252    
     56400   286.41137     -2623.1467      8607.404     
     56500   292.14741     -1112.862       8648.4672    
     56600   296.279        13.302012      8638.8245    
     56700   301.96752      265.38001      8614.676     
     56800   306.85434      1668.5058      8554.8148    
     56900   286.97056      1622.3447      8520.197     
     57000   287.0799      -560.38699      8553.0029    
     57100   306.20839     -2261.5985      8561.4364    
     57200   287.74752     -1021.4315      8503.6518    
     57300   279.07792     -356.77966      8440.3692    
     57400   285.90632      1266.8516      8397.2055    
     57500   288.85471      118.88092      8429.1427    
     57600   297.67464     -285.74473      8480.2741    
     57700   291.54196      564.45684      8508.112     
     57800   299.32475      177.77828      8513.1023    
     57900   298.35243      444.59502      8498.1409    
     58000   292.69096      133.85971      8502.2322    
     58100   279.15431     -3.2970931      8510.6203    
     58200   284.98285     -1338.8052      8508.0044    
     58300   286.52782      1641.3332      8466.5919    
     58400   302.7828       1913.5985      8469.8487    
     58500   293.84817     -475.95328      8548.7587    
     58600   284.33558     -3133.9013      8619.9375    
     58700   294.81313     -1785.7675      8572.8981    
     58800   311.22565     -111.46457      8473.3173    
     58900   295.16824      1026.7311      8469.1567    
     59000   282.95911     -3488.5585      8562.8428    
     59100   278.97019     -1092.5998      8575.805     
     59200   291.8945       932.26317      8535.3759    
     59300   301.09113      687.80299      8496.8145    
     59400   301.46228      473.71558      8461.1583    
     59500   292.77283     -27.229445      8441.2523    
     59600   293.79003     -426.66691      8434.64      
     59700   285.76612     -797.59673      8422.3501    
     59800   273.99048     -1478.109       8399.6864    
     59900   284.87502     -550.35036      8361.2113    
     60000   296.59224      34.736242      8346.6216    
     60100   294.80601      489.78814      8392.4201    
     60200   289.98252      348.67793      8472.0809    
     60300   281.7101       736.62909      8517.5965    
     60400   309.67722      967.98964      8540.8113    
     60500   291.65608      789.49404      8543.096     
     60600   284.00821     -159.58221      8516.5849    
     60700   292.91966     -1322.4962      8468.3868    
     60800   290.627       -1046.748       8421.5862    
     60900   283.00234     -927.57666      8422.0723    
     61000   289.9034      -1354.939       8466.3793    
     61100   294.10394     -43.118584      8496.5557    
     61200   289.05359      500.30772      8505.1335    
     61300   288.75744      1220.4652      8463.4997    
     61400   311.59051      2699.9323      8432.6026    
     61500   302.38275      809.26152      8476.2136    
     61600   284.15467     -1389.0885      8532.5747    
     61700   279.12449     -318.39361      8524.1612    
     61800   296.02022      153.73214      8510.4868    
     61900   297.05485      156.74679      8509.9812    
     62000   294.12222     -49.105608      8515.5981    
     62100   278.34433     -206.38187      8521.8277    
     62200   296.10604     -1508.8571      8505.2822    
     62300   296.5586       1030.9895      8445.0279    
     62400   293.07965      1747.7201      8421.568     
     62500   284.31153      930.71435      8451.6287    
     62600   285.59121      1103.7426      8454.3915    
     62700   303.14631      1183.3364      8453.2667    
     62800   305.78306     -1070.4444      8473.269     
     62900   293.34734      185.65457      8488.0674    
     63000   275.89356     -2499.0985      8541.0221    
     63100   278.88788     -2297.4908      8525.8153    
     63200   293.69742      547.66276      8439.8382    
     63300   302.84575      2174.6873      8404.7697    
     63400   289.73612      50.363267      8436.059     
     63500   284.02111     -269.4012       8455.1958    
     63600   297.98854      1677.2383      8451.085     
     63700   304.2106       2915.1791      8533.9848    
     63800   295.50292     -1392.8816      8697.1119    
     63900   298.51953     -2454.9129      8746.9062    
     64000   284.06404     -1523.6366      8657.8343    
     64100   319.75634      1166.2337      8549.7726    
     64200   294.76583     -545.7565       8564.2722    
     64300   283.66923     -1762.3567      8611.0499    
     64400   288.98707     -1835.8864      8624.5413    
     64500   293.37159     -550.88771      8602.5565    
     64600   300.23013     -280.70953      8564.3549    
     64700   293.35917      2090.2472      8522.7516    
     64800   284.37454      463.70747      8532.5709    
     64900   288.99638      975.84274      8534.9772    
     65000   283.51837      858.66756      8539.9382    
     65100   292.32829      169.46237      8520.9075    
     65200   298.96303      678.38808      8475.8083    
     65300   302.5473       164.88764      8443.6165    
     65400   293.8325      -1346.6522      8447.2663    
     65500   287.35184     -1870.4927      8474.1695    
     65600   286.22089     -1658.2551      8479.87      
     65700   288.41621     -748.58679      8468.4006    
     65800   303.79296      1029.1425      8491.1826    
     65900   292.91518     -324.13149      8573.0055    
     66000   299.24953     -493.76432      8642.5255    
     66100   278.38269     -41.64792       8671.6166    
     66200   298.09098      658.3193       8646.6316    
     66300   303.32093      1264.3737      8577.7388    
     66400   292.433        465.18155      8506.9795    
     66500   292.86147      1477.4236      8445.6129    
     66600   301.72943      351.4029       8430.2302    
     66700   301.23645      1052.1774      8409.4003    
     66800   303.05626      1712.3336      8418.592     
     66900   293.9541       411.5931       8478.962     
     67000   286.33107     -1498.9844      8533.268     
     67100   301.22398     -1097.2938      8519.5096    
     67200   300.98341      1833.2766      8465.3069    
     67300   300.21015      309.2985       8484.9886    
     67400   290.27101     -9.8822632      8521.618     
     67500   285.46046      366.58478      8518.303     
     67600   291.55625     -458.12204      8498.9156    
     67700   290.06985     -644.52129      8462.9114    
     67800   300.10505     -456.26046      8415.3957    
     67900   302.21337      532.20727      8354.509     
     68000   293.35925      1193.5776      8332.3165    
     68100   284.24863      384.95074      8377.7883    
     68200   286.31192      1271.57        8443.9697    
     68300   294.75348     -1387.486       8529.0087    
     68400   291.62653     -1611.8551      8555.937     
     68500   289.12639     -1295.45        8528.4764    
     68600   297.73592     -1136.8369      8509.6841    
     68700   288.53533      130.74714      8519.0513    
     68800   276.463       -804.76521      8531.7849    
     68900   283.88657      27.783569      8479.6159    
     69000   294.13004      2278.9501      8417.3566    
     69100   302.41123      2216.5261      8421.6524    
     69200   285.68155     -220.65609      8443.7097    
     69300   293.53241     -666.76587      8397.3801    
     69400   310.64624     -592.53844      8311.7503    
     69500   304.23808      1035.483       8301.0397    
     69600   280.80756     -2095.0578      8382.1041    
     69700   290.95569     -561.73507      8414.7906    
     69800   298.89413      302.96316      8425.3163    
     69900   296.0483       246.90277      8445.4946    
     70000   301.454        1159.4992      8452.9258    
     70100   284.85349      1704.3528      8453.8808    
     70200   282.17231      3.2986597      8463.4313    
     70300   281.30584      382.26812      8435.0352    
     70400   311.5373       963.10439      8403.1143    
     70500   290.48927     -97.877598      8438.0686    
     70600   282.56482     -956.36473      8500.5355    
     70700   290.29207     -4115.6052      8566.471     
     70800   308.9643      -1638.4491      8532.6751    
     70900   316.60889      1472.5044      8477.9663    
     71000   312.04499      1609.7979      8503.6008    
     71100   286.91004     -191.17668      8538.7349    
     71200   285.98082      2841.9794      8484.0123    
     71300   289.52358      2457.1746      8438.6708    
     71400   308.61086     -243.11388      8424.6449    
     71500   300.4527      -508.6494       8406.4402    
     71600   274.87196     -616.20058      8396.3852    
     71700   290.99685     -286.59805      8387.3565    
     71800   300.94625      125.70367      8401.0204    
     71900   290.9437       244.81387      8448.2677    
     72000   288.00433     -222.59155      8513.588     
     72100   298.30262     -210.43126      8572.1066    
     72200   293.73212     -293.41562      8559.9949    
     72300   297.0929       2295.7743      8479.5536    
     72400   302.10986      1243.3185      8466.711     
     72500   279.76832     -1533.6379      8526.5639    
     72600   287.81898     -2952.2888      8580.5698    
     72700   273.92015     -2598.3667      8542.7033    
     72800   285.02687      934.40717      8460.3714    
     72900   289.00465      2091.1889      8420.6561    
     73000   290.66542      722.81702      8410.5236    
     73100   303.01057      2132.3486      8385.3072    
     73200   302.63869      846.86764      8392.0055    
     73300   300.58844      1380.105       8429.8261    
     73400   271.87297     -796.11025      8493.4851    
     73500   288.89148     -2539.7072      8522.2883    
     73600   301.50746     -1505.9611      8481.8352    
     73700   308.0579      -406.28505      8464.8586    
     73800   294.76881     -2470.9898      8519.0704    
     73900   293.42426     -83.213883      8523.5762    
     74000   293.00307      2633.8565      8500.5561    
     74100   300.46253      2920.8521      8511.3475    
     74200   297.84578      1689.0059      8549.8219    
     74300   289.17351      825.71636      8541.9688    
     74400   287.9945       622.02685      8501.8727    
     74500   294.461       -1786.103       8474.5325    
     74600   282.24451     -1402.6267      8437.5301    
     74700   297.635       -2548.0403      8426.0386    
     74800   284.54372     -1528.719       8397.9807    
     74900   304.05699      1098.2897      8347.0729    
     75000   299.01197      2389.2261      8333.8111    
     75100   295.64697      2562.3997      8386.5752    
     75200   298.14203     -259.28291      8458.0449    
     75300   280.87552     -336.48011      8458.455     
     75400   281.83412     -490.41094      8435.3717    
     75500   285.63962     -1805.1851      8426.5835    
     75600   285.41048     -2687.4502      8414.929     
     75700   303.98859     -1210.1156      8359.0729    
     75800   296.33576      1693.606       8309.6392    
     75900   286.49671     -121.72973      8358.0523    
     76000   290.57683     -450.77796      8404.7595    
     76100   294.18879      1597.2148      8397.4056    
     76200   284.3326       1938.0412      8377.3347    
     76300   305.39932      1555.8026      8353.2273    
     76400   297.27699      2221.2123      8315.7276    
     76500   289.8949       2136.9164      8327.053     
     76600   288.08575     -42.083494      8381.6326    
     76700   309.36923     -2366.8058      8425.6709    
     76800   275.61398     -1038.4867      8420.335     
     76900   279.94052     -941.42675      8411.9704    
     77000   288.61157      413.56143      8407.93      
     77100   304.5499       2488.0635      8415.2222    
     77200   296.16855      2774.1887      8439.4073    
     77300   291.99972      1259.8061      8464.5501    
     77400   292.8951       1070.7122      8433.6878    
     77500   293.33332     -1027.9766      8398.2842    
     77600   283.60279     -817.14394      8379.9829    
     77700   295.96709     -995.53629      8408.2901    
     77800   296.36616     -1927.0407      8514.7106    
     77900   299.03934     -3986.598       8610.1552    
     78000   289.44508     -1124.7597      8581.348     
     78100   303.11662      1211.067       8495.1615    
     78200   296.61749      2791.9803      8416.4017    
     78300   295.0451       2926.6485      8411.0711    
     78400   281.3992       995.93074      8466.6199    
     78500   299.01185     -1948.1008      8525.1352    
     78600   297.5351      -1067.8581      8504.0777    
     78700   306.08729     -281.13178      8453.7067    
     78800   286.11591     -1470.03        8431.3561    
     78900   281.88495     -1650.9602      8421.2635    
     79000   293.11008      347.66389      8366.8897    
     79100   297.06225      650.14108      8342.0072    
     79200   288.60492      1246.2521      8352.4755    
     79300   291.23897      2246.1855      8379.6691    
     79400   299.00745      400.99431      8424.7962    
     79500   292.66169      484.82038      8434.3305    
     79600   284.88579     -1943.5952      8409.6005    
     79700   292.5741      -175.2273       8328.9388    
     79800   302.21601      1501.254       8281.9332    
     79900   308.8187       628.29243      8324.3488    
     80000   290.23298     -555.7552       8403.3065    
     80100   293.25196     -979.66408      8465.3507    
     80200   294.0991       75.744687      8487.5137    
     80300   290.66753     -1125.4379      8527.7729    
     80400   286.03772     -2857.0095      8559.8382    
     80500   293.58318     -1476.4048      8507.0728    
     80600   298.23144      1376.9897      8428.8547    
     80700   294.14366      1169.4512      8410.7092    
     80800   292.03999      92.577156      8429.9318    
     80900   304.65112     -397.60093      8438.8669    
     81000   290.03476     -837.12958      8456.4156    
     81100   284.58269     -569.24783      8448.3408    
     81200   291.10888      858.80259      8430.6247    
     81300   301.6008      -255.93768      8459.5728    
     81400   298.27054     -407.35789      8495.2567    
     81500   289.19531     -1506.1514      8525.2878    
     81600   287.75448     -1067.5896      8492.2231    
     81700   294.20125      2399.1125      8423.426     
     81800   302.90839      2515.3854      8433.6307    
     81900   307.03483      852.88542      8492.6946    
     82000   300.69516     -787.91682      8521.8262    
     82100   288.92113     -451.79001      8492.4575    
     82200   298.98211     -1284.3375      8461.288     
     82300   296.25601     -565.54605      8435.8565    
     82400   304.44975     -395.54118      8447.7521    
     82500   284.45076     -721.09416      8483.3986    
     82600   274.61309     -101.24612      8478.2653    
     82700   293.04264      430.9417       8445.0944    
     82800   295.14643      966.72056      8391.2219    
     82900   285.15816      3262.0024      8342.9136    
     83000   289.10617      376.0413       8393.4352    
     83100   287.94871     -1171.4815      8472.9515    
     83200   291.86609     -2161.3881      8526.6134    
     83300   295.54879     -2603.7478      8560.5143    
     83400   295.37398     -1943.0394      8570.0981    
     83500   292.55992     -1015.953       8558.6606    
     83600   297.62889     -84.884704      8541.2015    
     83700   299.21752      1617.7169      8530.1831    
     83800   304.22933      3030.4705      8562.2809    
     83900   291.26046     -21.542131      8638.052     
     84000   281.37105      17.164845      8628.8099    
     84100   297.20721      1405.986       8558.1222    
     84200   299.27172     -670.34805      8531.7679    
     84300   293.83189     -2294.2824      8533.2532    
     84400   288.21793     -1960.8851      8510.7699    
     84500   292.72783     -777.29153      8477.5096    
     84600   286.38088      1520.3231      8438.6677    
     84700   301.71288      3311.7705      8432.1057    
     84800   286.41469      2326.4837      8456.8443    
     84900   296.51018      2921.1493      8490.8325    
     85000   301.96097      984.95809      8571.8663    
     85100   298.62995     -428.83226      8656.529     
     85200   282.44723     -2053.9281      8707.7516    
     85300   283.55128     -2143.1341      8686.2423    
     85400   311.21448     -719.00079      8626.2324    
     85500   296.93995     -1760.5045      8612.0022    
     85600   295.27813     -1511.4444      8617.9039    
     85700   293.94997     -167.10428      8574.3984    
     85800   294.26679      2049.2552      8492.2325    
     85900   286.46193      3780.8015      8432.908     
     86000   292.54464      2111.3385      8467.2013    
     86100   304.18873      247.29823      8538.5684    
     86200   301.05561     -1471.94        8586.884     
     86300   301.26946     -1943.108       8570.7977    
     86400   295.68968     -763.05797      8529.2818    
     86500   286.51349     -743.72053      8530.3712    
     86600   296.02528     -515.85719      8568.5009    
     86700   290.8389      -554.59343      8608.6143    
     86800   297.88436      254.00177      8586.4544    
     86900   305.76509      1901.161       8511.0555    
     87000   309.06526      2464.5062      8476.4001    
     87100   288.70072      1079.705       8500.538     
     87200   290.41002      905.37035      8534.0062    
     87300   296.39086      351.44012      8589.5439    
     87400   294.89783     -973.2172       8655.1728    
     87500   295.24789     -734.89233      8698.6768    
     87600   287.82313      425.22093      8708.2213    
     87700   305.36381     -14.847028      8714.3929    
     87800   290.44355      709.56295      8721.245     
     87900   288.35356     -64.05591       8710.6961    
     88000   286.02569      797.00257      8667.2826    
     88100   297.06048     -630.4741       8634.3892    
     88200   287.74007     -745.06989      8591.5321    
     88300   291.99861     -498.85809      8559.8779    
     88400   288.3902      -252.93485      8567.036     
     88500   294.33233     -1772.3251      8610.8558    
     88600   284.53398     -782.47254      8638.9205    
     88700   289.90877      898.99167      8635.9152    
     88800   301.30976      1305.0179      8641.451     
     88900   298.51612      1786.3382      8669.2344    
     89000   289.79044      448.28334      8709.52      
     89100   290.20077      511.17882      8712.2423    
     89200   301.90182     -515.11691      8723.4087    
     89300   289.76767      718.23141      8763.4932    
     89400   290.67421     -836.35945      8843.744     
     89500   287.7638       12.781998      8896.0439    
     89600   301.57477      184.10203      8927.5512    
     89700   306.02119     -467.96295      8923.1405    
     89800   290.70454     -162.23723      8862.9129    
     89900   292.20763     -931.06226      8772.646     
     90000   287.74366     -989.70862      8694.6328    
     90100   301.17683     -22.656765      8617.3739    
     90200   288.80947      1555.1201      8554.905     
     90300   276.65446      321.47823      8558.9998    
     90400   295.18783     -889.91803      8558.6462    
     90500   297.45338     -500.16249      8501.5249    
     90600   294.19969      197.86648      8443.1773    
     90700   295.86486     -956.37923      8429.58      
     90800   294.06546      1006.4435      8414.5426    
     90900   299.09608     -218.00913      8456.9551    
     91000   301.28994      163.96121      8537.7716    
     91100   293.77472     -2434.5616      8622.9325    
     91200   285.97126     -1120.6431      8627.1683    
     91300   293.21693      1683.302       8598.6368    
     91400   299.37098      788.96225      8631.8809    
     91500   285.63533     -605.04         8664.3722    
     91600   282.93806      1187.6926      8603.7138    
     91700   290.75601      2531.8105      8542.0777    
     91800   295.81443      764.89306      8560.3443    
     91900   300.8378       781.60698      8612.3392    
     92000   285.81253     -1768.616       8695.0199    
     92100   283.16795     -956.16551      8702.1382    
     92200   292.20963     -1574.7036      8666.2828    
     92300   295.68713     -743.32855      8596.4506    
     92400   287.96927      1430.7775      8518.2267    
     92500   284.35821      1093.8787      8525.021     
     92600   302.34653     -687.42977      8560.5983    
     92700   298.90468      813.03519      8543.319     
     92800   299.87037      1116.4326      8514.5627    
     92900   301.9623       1042.3343      8496.9025    
     93000   295.55182      890.58824      8484.905     
     93100   291.97674      387.26044      8464.5195    
     93200   298.09666     -1462.3034      8426.3158    
     93300   292.96766     -164.96229      8374.9337    
     93400   298.68069     -2041.8531      8384.4331    
     93500   284.71277     -2729.7987      8385.5995    
     93600   292.15809      433.8713       8329.1915    
     93700   302.67565      1759.2439      8285.2119    
     93800   303.30476      2217.3071      8299.7019    
     93900   306.16583      870.65513      8369.5698    
     94000   288.09925      204.41832      8428.4155    
     94100   292.36648      493.85206      8436.3686    
     94200   290.68599      1316.9912      8416.304     
     94300   289.86546      263.96321      8442.1279    
     94400   307.91937     -2229.6074      8499.5469    
     94500   295.09034     -3632.435       8521.2786    
     94600   285.99103     -1672.2646      8469.31      
     94700   284.29546      738.86751      8397.7608    
     94800   302.93273      1902.02        8392.4487    
     94900   307.73594      2242.0554      8478.992     
     95000   298.23372      530.56776      8612.5958    
     95100   293.4373      -1904.3771      8682.4516    
     95200   292.31439     -161.44596      8625.851     
     95300   279.36233      756.09187      8557.7527    
     95400   292.93825     -1366.6257      8559.4802    
     95500   288.63755      59.063218      8578.9323    
     95600   313.72107     -2022.0462      8658.1692    
     95700   300.58423     -1242.6765      8706.6279    
     95800   280.99994      255.50607      8679.1374    
     95900   286.91618      1969.7533      8595.2343    
     96000   305.45194      1007.3711      8540.56      
     96100   297.62709      85.057986      8509.8079    
     96200   293.75658      1366.7528      8488.7596    
     96300   294.28651     -345.62706      8511.9525    
     96400   296.38205     -849.41836      8544.5828    
     96500   293.62755     -837.98948      8561.2538    
     96600   296.61498     -670.77055      8568.9024    
     96700   290.67262      526.63302      8578.1095    
     96800   293.46606      428.04823      8562.0643    
     96900   302.57         1467.8553      8509.9582    
     97000   306.91858      57.890881      8481.8673    
     97100   299.48725      1224.1165      8448.3211    
     97200   286.51908     -168.14966      8460.1714    
     97300   292.72136     -893.95361      8496.9614    
     97400   284.67343     -895.12669      8513.5107    
     97500   298.13229     -825.88218      8516.1377    
     97600   315.57405      147.14637      8517.1062    
     97700   285.08205      771.29731      8531.3907    
     97800   296.64028      41.412642      8543.1749    
     97900   286.29787      1310.6991      8549.9705    
     98000   291.83984      1913.9034      8590.2751    
     98100   296.79743     -292.32806      8659.1216    
     98200   289.48501     -516.4452       8701.105     
     98300   291.18132     -3373.6838      8735.0922    
     98400   276.51388     -1355.1242      8697.3566    
     98500   294.02901     -233.86509      8682.4841    
     98600   297.92277     -647.55709      8736.8521    
     98700   294.30834      99.547917      8788.4894    
     98800   299.44243      1156.9112      8771.0203    
     98900   310.29997      1203.2845      8710.6155    
     99000   291.69245      129.67401      8658.105     
     99100   290.82121      16.529719      8590.5421    
     99200   301.61083     -834.89347      8543.6168    
     99300   288.29137     -1658.0087      8555.3615    
     99400   291.65632     -2467.2295      8597.5063    
     99500   304.18213     -905.71718      8596.5528    
     99600   291.98019      125.95423      8596.775     
     99700   282.80976     -840.35145      8600.4644    
     99800   301.86827      2588.9951      8526.8621    
     99900   304.53778      1515.3198      8480.5757    
    100000   286.04715      2144.536       8453.0875    
Loop time of 586.253 on 1 procs for 100000 steps with 900 atoms

Performance: 7.369 ns/day, 3.257 hours/ns, 170.575 timesteps/s
99.7% CPU use with 1 MPI tasks x 1 OpenMP threads

MPI task timing breakdown:
Section |  min time  |  avg time  |  max time  |%varavg| %total
---------------------------------------------------------------
Pair    | 397        | 397        | 397        |   0.0 | 67.72
Bond    | 3.349      | 3.349      | 3.349      |   0.0 |  0.57
Kspace  | 91.836     | 91.836     | 91.836     |   0.0 | 15.66
Neigh   | 20.554     | 20.554     | 20.554     |   0.0 |  3.51
Comm    | 6.2127     | 6.2127     | 6.2127     |   0.0 |  1.06
Output  | 0.20828    | 0.20828    | 0.20828    |   0.0 |  0.04
Modify  | 66.263     | 66.263     | 66.263     |   0.0 | 11.30
Other   |            | 0.8329     |            |       |  0.14

Nlocal:            900 ave         900 max         900 min
Histogram: 1 0 0 0 0 0 0 0 0 0
Nghost:           8389 ave        8389 max        8389 min
Histogram: 1 0 0 0 0 0 0 0 0 0
Neighs:         346344 ave      346344 max      346344 min
Histogram: 1 0 0 0 0 0 0 0 0 0

Total # of neighbors = 346344
Ave neighs/atom = 384.82667
Ave special neighs/atom = 2
Neighbor list builds = 1924
Dangerous builds = 0
Total wall time: 0:09:46
