# LAMMPS data file written by OVITO Basic 3.7.12
900 atoms
600 bonds
300 angles
2 atom types
1 bond types
1 angle types
-10.4010299599 10.4010299599 xlo xhi
-10.4010299599 10.4010299599 ylo yhi
-10.4010299599 10.4010299599 zlo zhi

Masses

1 1.0079401
2 15.9994

Atoms  # full

1 1 2 -0.84759998 -7.2818454682 -10.3423109378 2.4996256349
2 1 1 0.42379999 -8.1808751516 -9.9187376149 2.6106718799
3 1 1 0.42379999 -7.333891081 -11.3071898011 2.7571135633
4 2 2 -0.84759998 5.4291087183 0.4230662675 -9.6724343123
5 2 1 0.42379999 4.7184801197 -0.2185052009 -9.9612128533
6 2 1 0.42379999 5.7778150628 0.1524601019 -8.7751182095
7 3 2 -0.84759998 1.6880941598 0.5672845608 5.4883086665
8 3 1 0.42379999 1.0501889579 1.3362263019 5.4458168772
9 3 1 0.42379999 1.2662149842 -0.1884967431 5.9891205891
10 4 2 -0.84759998 -1.0648617376 -9.8882743022 -5.7574484655
11 4 1 0.42379999 -1.1675970732 -9.7261395887 -6.7388544903
12 4 1 0.42379999 -1.8565701126 -9.5156175697 -5.2733773872
13 5 2 -0.84759998 10.0805841198 -8.9310079141 -9.4178667318
14 5 1 0.42379999 9.9420939559 -9.8489199969 -9.0460362828
15 5 1 0.42379999 10.9235882221 -8.5438173923 -9.0444667005
16 6 2 -0.84759998 7.0436676922 4.7404480619 2.713233767
17 6 1 0.42379999 6.3193993261 5.3275254633 3.0748626634
18 6 1 0.42379999 7.6986000073 5.2961378911 2.2011083171
19 7 2 -0.84759998 -3.990690944 10.0675390893 1.2936450087
20 7 1 0.42379999 -3.4711103277 9.3469959973 1.7528330264
21 7 1 0.42379999 -3.4887519077 10.9303534963 1.3537158238
22 8 2 -0.84759998 0.0875428821 6.0475049127 4.598743103
23 8 1 0.42379999 -0.4442811213 5.4307691849 5.1790880619
24 8 1 0.42379999 0.3311496101 6.8666015887 5.1181046317
25 9 2 -0.84759998 -5.9419216149 6.9776615001 -6.3758378598
26 9 1 0.42379999 -6.661535328 7.6581602399 -6.5139594335
27 9 1 0.42379999 -5.0629121084 7.4405770341 -6.2615947158
28 10 2 -0.84759998 9.6858053879 -3.5090431331 -8.5076454995
29 10 1 0.42379999 10.3757467014 -3.9445364897 -9.085855254
30 10 1 0.42379999 8.9846124558 -4.1788670593 -8.2633825677
31 11 2 -0.84759998 -1.0088313309 10.3937916982 1.8240783196
32 11 1 0.42379999 -1.6110792696 10.1273621327 2.5766158316
33 11 1 0.42379999 -0.9179151553 9.6309990681 1.1838583164
34 12 2 -0.84759998 5.9655600943 1.8489014745 -0.6004544475
35 12 1 0.42379999 5.8044562835 2.7417634912 -1.0209814756
36 12 1 0.42379999 6.7005101639 1.3782632536 -1.0886634808
37 13 2 -0.84759998 2.2333834518 -4.7642071506 1.7883472075
38 13 1 0.42379999 3.0846627567 -4.6619909816 2.303007678
39 13 1 0.42379999 1.9877310544 -3.8883066386 1.3730723675
40 14 2 -0.84759998 -7.0220694576 2.6901703975 -7.9358292661
41 14 1 0.42379999 -7.6006507571 3.4095274201 -8.3202368024
42 14 1 0.42379999 -7.570163429 2.105733479 -7.3374761205
43 15 2 -0.84759998 -4.0191383637 -8.4903661155 -0.6100910622
44 15 1 0.42379999 -4.6565176723 -7.7834846796 -0.303388841
45 15 1 0.42379999 -4.462951656 -9.0629994341 -1.2993811637
46 16 2 -0.84759998 -7.8493434031 -0.1271895967 -6.976304498
47 16 1 0.42379999 -8.7794856361 -0.4940647293 -6.9608751909
48 16 1 0.42379999 -7.2048878119 -0.8615283227 -7.1894326904
49 17 2 -0.84759998 1.3460657291 4.9908801613 2.3402581146
50 17 1 0.42379999 2.1234684999 5.25894666 2.9092794536
51 17 1 0.42379999 1.6780285252 4.5210331492 1.522306718
52 18 2 -0.84759998 -9.0981913438 -9.0681855933 0.5138425604
53 18 1 0.42379999 -9.3032868108 -10.0178384821 0.2769982229
54 18 1 0.42379999 -9.6974568207 -8.7734086814 1.2581458993
55 19 2 -0.84759998 9.3918788754 -2.3916116497 2.1520918666
56 19 1 0.42379999 10.2259668364 -2.9414047481 2.1070938413
57 19 1 0.42379999 8.8598568582 -2.6582617977 2.9557399686
58 20 2 -0.84759998 -0.9544601033 -6.3294989236 0.1913151519
59 20 1 0.42379999 -0.8761637833 -5.6163858701 0.8879782406
60 20 1 0.42379999 -0.3049075054 -6.1471284852 -0.5468057364
61 21 2 -0.84759998 6.273970618 9.5769699209 -1.8032000501
62 21 1 0.42379999 6.7614875632 10.4091171912 -1.5388931286
63 21 1 0.42379999 5.3970346428 9.5380317428 -1.3241727923
64 22 2 -0.84759998 4.8522950606 -3.283262695 5.3025748105
65 22 1 0.42379999 5.5815517413 -3.7443812455 4.7970509476
66 22 1 0.42379999 4.1679902011 -3.9546353815 5.5871544569
67 23 2 -0.84759998 -5.1994313732 8.4358752377 -2.3003387675
68 23 1 0.42379999 -5.8462131465 8.0867990314 -2.9784384209
69 23 1 0.42379999 -5.6970616163 8.7223395554 -1.4816188301
70 24 2 -0.84759998 -0.622654508 -8.9335021268 -9.7334843744
71 24 1 0.42379999 -1.353981676 -8.8097887338 -10.404197107
72 24 1 0.42379999 0.0917289282 -9.5150017625 -10.1227329837
73 25 2 -0.84759998 0.840601116 4.6056683385 -5.0705306233
74 25 1 0.42379999 0.0908311138 3.9959119144 -5.3275170959
75 25 1 0.42379999 1.4215688024 4.773586747 -5.8669475716
76 26 2 -0.84759998 -2.7644302804 -1.194102869 2.1268227741
77 26 1 0.42379999 -3.4647044784 -1.3657895066 2.8197439429
78 26 1 0.42379999 -2.4374305943 -2.0652099329 1.7604299679
79 27 2 -0.84759998 -0.8467342011 1.3600000484 3.7500976211
80 27 1 0.42379999 -0.0779051453 1.7683485344 4.2421884633
81 27 1 0.42379999 -1.6004511137 1.1959344255 4.38648845
82 28 2 -0.84759998 2.5009555917 6.9527751104 9.3449493209
83 28 1 0.42379999 3.3032311128 6.9208516766 9.9410490463
84 28 1 0.42379999 1.7218129724 7.3185545296 9.8540094306
85 29 2 -0.84759998 -8.1487399547 7.4990793763 2.2481825428
86 29 1 0.42379999 -8.3151386337 6.6454432939 2.7417581889
87 29 1 0.42379999 -8.068433445 8.2517401611 2.9016751651
88 30 2 -0.84759998 3.0889359969 -9.3299764211 1.1894724548
89 30 1 0.42379999 3.927644597 -9.0764651977 0.7074974101
90 30 1 0.42379999 2.360059634 -8.6885587801 0.9500509494
91 31 2 -0.84759998 0.6546739714 -9.2567139695 3.9779727046
92 31 1 0.42379999 1.5937571743 -9.1453702657 3.6528184063
93 31 1 0.42379999 0.1459114892 -9.8313584454 3.3369232034
94 32 2 -0.84759998 6.9986758002 6.8989705653 5.2489528019
95 32 1 0.42379999 7.3651300144 7.4661743764 4.5113952478
96 32 1 0.42379999 6.0305429211 6.7153552915 5.0786467258
97 33 2 -0.84759998 9.4183847288 8.6419785297 -8.3794002689
98 33 1 0.42379999 8.7221852476 9.3563136664 -8.3084665334
99 33 1 0.42379999 9.890403869 8.7225828739 -9.2572959751
100 34 2 -0.84759998 5.3024610401 4.1504596589 -9.1350779163
101 34 1 0.42379999 4.6867922437 3.7705661076 -9.8254639118
102 34 1 0.42379999 5.7365137117 3.4050296259 -8.6291803534
103 35 2 -0.84759998 -9.6403354759 3.2237987839 9.9742424974
104 35 1 0.42379999 -8.9639658104 2.6292335916 9.5394824398
105 35 1 0.42379999 -10.3434351975 3.4718631502 9.3078230711
106 36 2 -0.84759998 9.995267511 2.4082495988 -4.3147364835
107 36 1 0.42379999 10.1860767464 2.0603341433 -3.3968330727
108 36 1 0.42379999 9.9158828109 3.4046105513 -4.2837055039
109 37 2 -0.84759998 2.2723831713 -9.2668627595 6.2404316094
110 37 1 0.42379999 1.5878597113 -8.8305128929 6.8244062891
111 37 1 0.42379999 2.7673259052 -9.9584040983 6.7665516213
112 38 2 -0.84759998 -2.0192789046 3.9933460143 2.8724659832
113 38 1 0.42379999 -1.80526505 4.1666857624 3.8337939198
114 38 1 0.42379999 -2.836194535 3.4198720064 2.81101344
115 39 2 -0.84759998 -9.3415817443 -5.7985331631 -3.5175952716
116 39 1 0.42379999 -9.5674106807 -5.4324592611 -4.4203638964
117 39 1 0.42379999 -8.3515517459 -5.9192319314 -3.4449839124
118 40 2 -0.84759998 -5.3987515919 -1.4949182337 -0.6079148062
119 40 1 0.42379999 -4.955729108 -1.2548687178 -1.4716898398
120 40 1 0.42379999 -5.650314905 -0.6596813312 -0.1189411707
121 41 2 -0.84759998 6.5043256166 10.0274297857 -4.7662145575
122 41 1 0.42379999 6.9469771371 9.4135986116 -4.1125549204
123 41 1 0.42379999 7.1956359275 10.6009850291 -5.2056738127
124 42 2 -0.84759998 0.2100021025 -4.0450424979 -5.339249893
125 42 1 0.42379999 -0.5549738707 -4.1196688513 -4.6995291197
126 42 1 0.42379999 0.1504231662 -4.7779033287 -6.0170148618
127 43 2 -0.84759998 3.8673371942 -6.0553001508 4.3125471988
128 43 1 0.42379999 3.8673345394 -6.5327361338 3.4338806624
129 43 1 0.42379999 4.6050538809 -6.4120238804 4.8857158223
130 44 2 -0.84759998 -4.6014486411 -6.7146877792 -8.0482020692
131 44 1 0.42379999 -5.1998006932 -6.8730161548 -7.2627678281
132 44 1 0.42379999 -5.1568945872 -6.585168149 -8.8696060297
133 45 2 -0.84759998 8.6429346569 -8.1280278802 6.1363912888
134 45 1 0.42379999 8.2416973449 -7.3432547791 5.6640145333
135 45 1 0.42379999 9.276552246 -8.5984829432 5.5222245489
136 46 2 -0.84759998 0.2402853968 6.1464935923 -9.5338043911
137 46 1 0.42379999 -0.4159966232 5.3931231615 -9.492248354
138 46 1 0.42379999 1.1064419516 5.8568557256 -9.1265173564
139 47 2 -0.84759998 -9.0271782344 -1.0435297424 10.1136106722
140 47 1 0.42379999 -9.4165438028 -1.52550934 9.3286965867
141 47 1 0.42379999 -8.3521330708 -0.3781764324 9.7948333205
142 48 2 -0.84759998 8.3089273779 -8.5705654849 8.8554193626
143 48 1 0.42379999 7.4984712372 -8.5287428393 9.4397238298
144 48 1 0.42379999 9.0617381125 -8.993910408 9.359458125
145 49 2 -0.84759998 9.2460622743 7.0616294083 2.3541619014
146 49 1 0.42379999 9.6583563232 6.5961883026 1.5709772524
147 49 1 0.42379999 8.2516855574 6.9633663936 2.3146736137
148 50 2 -0.84759998 -4.4256205646 -5.9314420913 4.6141966381
149 50 1 0.42379999 -5.0462546285 -6.2174365167 3.8841140761
150 50 1 0.42379999 -4.9569566462 -5.6700105669 5.4200102185
151 51 2 -0.84759998 7.9491127834 2.0691706467 6.8618798066
152 51 1 0.42379999 7.3652023107 2.4194419731 7.5942448506
153 51 1 0.42379999 8.9067222337 2.2566569535 7.0805874323
154 52 2 -0.84759998 2.2082584492 -0.9955286823 8.0146194801
155 52 1 0.42379999 2.7504889035 -1.6616835363 7.5025415125
156 52 1 0.42379999 2.6539685658 -0.8046899663 8.8892182889
157 53 2 -0.84759998 -3.3421048934 8.7007005354 6.088629878
158 53 1 0.42379999 -4.1717191897 8.1559377934 6.2109968442
159 53 1 0.42379999 -3.5718426783 9.5596009618 5.6309065909
160 54 2 -0.84759998 -2.0912143055 -1.3100519974 6.2510474928
161 54 1 0.42379999 -1.799386671 -1.9908204522 5.579191152
162 54 1 0.42379999 -1.3471464505 -1.138807353 6.8968325181
163 55 2 -0.84759998 -2.1273403062 -1.6315535054 -1.7606580928
164 55 1 0.42379999 -1.5336155889 -1.3890443477 -2.5279131146
165 55 1 0.42379999 -2.7775111295 -2.3335761057 -2.0512474409
166 56 2 -0.84759998 9.8720584323 -0.9390590896 -0.4655851898
167 56 1 0.42379999 9.4377393673 -1.5114539095 -1.1610930042
168 56 1 0.42379999 10.2799911129 -1.5210532112 0.2378874611
169 57 2 -0.84759998 -6.285933904 -4.7735573582 -9.322075036
170 57 1 0.42379999 -7.092607076 -4.7248351016 -8.7330890131
171 57 1 0.42379999 -5.6818213871 -4.0015501053 -9.1244570502
172 58 2 -0.84759998 -5.596914936 2.997599812 -1.1563895839
173 58 1 0.42379999 -5.8671344182 3.7091878919 -0.5078343926
174 58 1 0.42379999 -6.3416788508 2.3378649597 -1.2567720318
175 59 2 -0.84759998 3.6435368175 6.7570917879 -6.6034534943
176 59 1 0.42379999 4.5101011523 6.9637091004 -6.1491677473
177 59 1 0.42379999 3.7430736854 6.893534755 -7.5890881775
178 60 2 -0.84759998 4.6683695205 1.408619179 -7.2030209245
179 60 1 0.42379999 4.9480726329 1.448537771 -8.162277238
180 60 1 0.42379999 4.1915772292 0.5467108842 -7.0304428195
181 61 2 -0.84759998 -0.470357679 3.9751487464 -1.1686504264
182 61 1 0.42379999 -1.180551484 3.6183522229 -1.7755449808
183 61 1 0.42379999 -0.3285781914 4.947017684 -1.3567178212
184 62 2 -0.84759998 -6.2584567347 9.1920953314 4.7212132985
185 62 1 0.42379999 -5.5530972367 8.6653188241 5.1955280567
186 62 1 0.42379999 -6.3868372595 10.069371746 5.1837114425
187 63 2 -0.84759998 -9.8897170027 1.9708932723 -8.0823927516
188 63 1 0.42379999 -10.4960371567 2.5473041832 -8.6302306224
189 63 1 0.42379999 -10.3046044607 1.0687577606 -7.963987026
190 64 2 -0.84759998 4.3563844538 5.5503470931 5.5531335928
191 64 1 0.42379999 3.4586248556 5.1554242041 5.3580346041
192 64 1 0.42379999 4.8794994069 4.9211695676 6.1280130473
193 65 2 -0.84759998 6.296666832 -3.4633874105 -8.5470968621
194 65 1 0.42379999 7.2190029446 -3.0770946104 -8.5384964044
195 65 1 0.42379999 6.186596853 -4.0807711017 -7.7681732602
196 66 2 -0.84759998 6.5304197556 1.5383311428 2.7077704504
197 66 1 0.42379999 6.5406799028 2.3887802192 2.1818131347
198 66 1 0.42379999 7.3977388821 1.057156601 2.580378955
199 67 2 -0.84759998 -4.6134828725 4.2782728911 7.598430988
200 67 1 0.42379999 -4.2033028939 5.190272577 7.6014239761
201 67 1 0.42379999 -4.4403031074 3.8320272907 8.4764250843
202 68 2 -0.84759998 6.3546243137 -0.7956604377 -6.1065333091
203 68 1 0.42379999 5.5819708258 -0.1608425993 -6.1029416887
204 68 1 0.42379999 7.0122931734 -0.5162896052 -6.8061214801
205 69 2 -0.84759998 -7.3396379077 6.4766298569 9.7929331355
206 69 1 0.42379999 -7.7340221924 7.2184396586 10.335316076
207 69 1 0.42379999 -8.0571681476 5.8242443569 9.5489177381
208 70 2 -0.84759998 7.5154670303 -4.5214535935 7.4825443486
209 70 1 0.42379999 7.4624397085 -5.2125405829 8.203368097
210 70 1 0.42379999 7.1412074449 -4.8954895966 6.6340004009
211 71 2 -0.84759998 -6.9215240455 0.1349262301 -2.4093746332
212 71 1 0.42379999 -7.4867671886 0.6318052914 -3.0678663853
213 71 1 0.42379999 -6.3520612082 -0.5294961006 -2.8933736448
214 72 2 -0.84759998 7.7554944845 4.7958336919 -6.6142184465
215 72 1 0.42379999 7.2060367726 4.3298687766 -5.920696334
216 72 1 0.42379999 7.8451842584 5.7624748569 -6.3743005384
217 73 2 -0.84759998 4.1388442712 0.1715321979 3.7148788877
218 73 1 0.42379999 4.8124759756 0.0650726276 2.9835194093
219 73 1 0.42379999 4.0440932852 1.1407142394 3.9422737448
220 74 2 -0.84759998 1.4917804551 -7.0610323676 -7.2529021856
221 74 1 0.42379999 2.4113757035 -7.3923015797 -7.0417025448
222 74 1 0.42379999 0.8190721133 -7.5972168367 -6.7430299448
223 75 2 -0.84759998 -1.5051034361 9.5762511474 -1.4073569614
224 75 1 0.42379999 -2.2350603399 10.2588077589 -1.3715883909
225 75 1 0.42379999 -0.7159043663 9.9047332341 -0.8884500846
226 76 2 -0.84759998 0.3200477016 9.3689944873 -4.0193913226
227 76 1 0.42379999 0.1828831937 8.3966525425 -3.8303488931
228 76 1 0.42379999 0.1842840137 9.894260333 -3.1793532209
229 77 2 -0.84759998 1.7121570142 2.7770457148 -8.0654825477
230 77 1 0.42379999 2.349547096 2.3915242325 -8.7326459987
231 77 1 0.42379999 1.1493438055 3.4756585186 -8.5072759865
232 78 2 -0.84759998 3.938051546 -2.3012519244 -4.677584056
233 78 1 0.42379999 4.6288012997 -1.6601708142 -4.3430996946
234 78 1 0.42379999 3.5304214907 -2.7857927458 -3.9035957289
235 79 2 -0.84759998 8.7523582527 6.2255299748 7.6079332577
236 79 1 0.42379999 8.8182753719 6.611608956 6.6878256804
237 79 1 0.42379999 8.0869049815 6.7474930354 8.1415309594
238 80 2 -0.84759998 5.9063457808 -0.7720503694 -3.0251162997
239 80 1 0.42379999 5.182985703 -0.3214824393 -3.548316776
240 80 1 0.42379999 6.7981552168 -0.4563147996 -3.3491332434
241 81 2 -0.84759998 -1.9356301544 -7.1087298752 3.3484240506
242 81 1 0.42379999 -2.6335391164 -7.6327559293 2.8602439861
243 81 1 0.42379999 -2.3726231465 -6.3738980712 3.8671333572
244 82 2 -0.84759998 -9.7248089143 8.6323242465 9.9597523932
245 82 1 0.42379999 -9.6225677278 7.7711267122 10.45763345
246 82 1 0.42379999 -10.4411555111 8.534882705 9.2688452365
247 83 2 -0.84759998 7.8979610323 6.2838167467 -0.9516124031
248 83 1 0.42379999 7.0728811674 6.0056979294 -1.4434387343
249 83 1 0.42379999 8.6970251006 6.1471437807 -1.5371182656
250 84 2 -0.84759998 -1.3490871897 -6.8393001431 -3.3430331906
251 84 1 0.42379999 -1.9906378305 -7.6040086153 -3.2827527804
252 84 1 0.42379999 -0.845436626 -6.7581678437 -2.4829438582
253 85 2 -0.84759998 8.2688235182 0.679864214 -2.191297981
254 85 1 0.42379999 8.1796046764 0.0477063055 -2.9609838759
255 85 1 0.42379999 7.3610137778 0.9025893471 -1.8359460564
256 86 2 -0.84759998 -2.9461845241 5.4340353425 0.3346994674
257 86 1 0.42379999 -3.54388672 5.4641349543 -0.4664535133
258 86 1 0.42379999 -3.4786297729 5.1670055432 1.1379411143
259 87 2 -0.84759998 -9.9309273563 -6.5447275849 5.2805361017
260 87 1 0.42379999 -10.5306622193 -7.0111329569 4.6303175822
261 87 1 0.42379999 -10.464821892 -6.2467142084 6.0718291272
262 88 2 -0.84759998 1.5066036466 -4.1713904304 5.1301613106
263 88 1 0.42379999 1.0911408312 -3.2617812288 5.1314839433
264 88 1 0.42379999 2.4052346898 -4.1280123296 5.5667166777
265 89 2 -0.84759998 1.2363974179 -5.714398595 8.4152074895
266 89 1 0.42379999 1.3946697973 -6.6807199118 8.6181187181
267 89 1 0.42379999 0.55907687 -5.6339620442 7.6839299522
268 90 2 -0.84759998 -4.9774679753 -6.9123561031 -3.6562858607
269 90 1 0.42379999 -5.6660427287 -6.2240375665 -3.8845015505
270 90 1 0.42379999 -4.079802722 -6.6024868048 -3.9696197258
271 91 2 -0.84759998 5.58670944 -1.8389164578 0.4372791476
272 91 1 0.42379999 6.256287961 -1.1991196741 0.0600197145
273 91 1 0.42379999 5.3917261669 -2.5525597546 -0.2355468091
274 92 2 -0.84759998 -8.462650963 9.8913460949 -6.1061108909
275 92 1 0.42379999 -9.1042230339 9.6108202487 -5.3921847551
276 92 1 0.42379999 -7.6448429772 9.3174294157 -6.0635698079
277 93 2 -0.84759998 -2.0942208485 -4.5636278237 -9.92760368
278 93 1 0.42379999 -1.2766138978 -5.1293563676 -9.8205051793
279 93 1 0.42379999 -2.8338471819 -5.1161345419 -10.3119072231
280 94 2 -0.84759998 9.511530392 0.1630112892 3.0576756038
281 94 1 0.42379999 9.3668498693 -0.6706748289 2.5247262602
282 94 1 0.42379999 10.1383838114 0.7679374332 2.5666367551
283 95 2 -0.84759998 1.280273536 -0.0151670844 -1.4941368743
284 95 1 0.42379999 1.215568227 0.4018086482 -0.587525347
285 95 1 0.42379999 1.4382333954 -0.9979696146 -1.3984923783
286 96 2 -0.84759998 -7.5869533648 -5.4367868731 1.8684887666
287 96 1 0.42379999 -7.2264258141 -5.0075640188 1.0403658128
288 96 1 0.42379999 -6.8796338428 -6.0103991256 2.2816086978
289 97 2 -0.84759998 1.1694666677 -10.1958396213 9.2468857612
290 97 1 0.42379999 1.3862651088 -10.954318382 9.8614656222
291 97 1 0.42379999 1.508293368 -9.3410381894 9.6399646073
292 98 2 -0.84759998 -3.8679628398 -9.6716981898 -4.8706600152
293 98 1 0.42379999 -3.9656305858 -10.3408229077 -4.1339557847
294 98 1 0.42379999 -3.1429733843 -9.0233759702 -4.6381334813
295 99 2 -0.84759998 -5.3638837211 4.5292467006 -9.4034524164
296 99 1 0.42379999 -6.0561777703 3.9237703816 -9.0108618197
297 99 1 0.42379999 -4.5802496235 3.9870923501 -9.7067447859
298 100 2 -0.84759998 -2.9721826194 -4.2718358175 1.663540993
299 100 1 0.42379999 -2.5456608441 -4.0697755574 2.5451592928
300 100 1 0.42379999 -2.8798325043 -5.2474444956 1.4643949073
301 101 2 -0.84759998 1.6043878705 -4.1824969362 -1.9702418601
302 101 1 0.42379999 1.915256177 -3.249509881 -2.1516145447
303 101 1 0.42379999 2.1100121604 -4.8210151999 -2.5504474309
304 102 2 -0.84759998 -3.2724880657 8.9237570596 9.1701348041
305 102 1 0.42379999 -3.4378340677 8.1445313358 9.7746742742
306 102 1 0.42379999 -2.420030905 9.3751884872 9.433813501
307 103 2 -0.84759998 -8.7376207789 3.1306358397 2.2264295339
308 103 1 0.42379999 -7.7732951714 3.3135335663 2.0350541321
309 103 1 0.42379999 -8.8429099164 2.8665402667 3.1851618875
310 104 2 -0.84759998 -3.1021814455 -1.9840263162 -10.3196824921
311 104 1 0.42379999 -3.6748459732 -1.4956980666 -10.9781586567
312 104 1 0.42379999 -3.2414444899 -2.9689016923 -10.4227664291
313 105 2 -0.84759998 -8.9916815699 0.2822803744 1.0082964015
314 105 1 0.42379999 -9.7426091667 -0.2597883333 1.3854823774
315 105 1 0.42379999 -9.3231250751 0.8140242086 0.2289417341
316 106 2 -0.84759998 -8.5908517122 -3.1322850319 8.3527708905
317 106 1 0.42379999 -8.3951135541 -3.4940647963 9.2642542834
318 106 1 0.42379999 -8.9860528194 -2.2173865013 8.4350919914
319 107 2 -0.84759998 -8.6876472421 2.504865508 6.3321050469
320 107 1 0.42379999 -8.8689938972 2.1548925385 7.2511438444
321 107 1 0.42379999 -8.3610024667 1.7600481468 5.7502543022
322 108 2 -0.84759998 3.8623782842 1.2450814314 -3.9408718523
323 108 1 0.42379999 3.280734941 0.8921769354 -3.2079670576
324 108 1 0.42379999 3.7561584215 2.237539028 -4.0020703794
325 109 2 -0.84759998 4.5171904899 -9.547993626 7.8891850531
326 109 1 0.42379999 3.7667371315 -10.0515032581 8.3173179848
327 109 1 0.42379999 4.7941765811 -8.793223164 8.4838280174
328 110 2 -0.84759998 3.9777162682 -6.6918462839 -1.5031815532
329 110 1 0.42379999 3.1770473285 -6.0975012363 -1.4277944628
330 110 1 0.42379999 4.7719393522 -6.1482762347 -1.7747350368
331 111 2 -0.84759998 -5.0239972264 -1.0506384734 4.7249174593
332 111 1 0.42379999 -4.7765801307 -1.2529368105 5.6724722934
333 111 1 0.42379999 -5.9144774961 -0.5961593762 4.7026994614
334 112 2 -0.84759998 -9.9193185363 6.1404102292 5.4312491722
335 112 1 0.42379999 -9.3009710255 6.0153165487 6.207134426
336 112 1 0.42379999 -10.710324892 5.5374361864 5.5348409145
337 113 2 -0.84759998 7.1086156591 -8.18326479 -2.1937718516
338 113 1 0.42379999 7.297986581 -9.0380228126 -1.7105251478
339 113 1 0.42379999 6.4691101732 -7.6320284796 -1.6578882228
340 114 2 -0.84759998 1.8663232047 5.8852700863 -2.8920847764
341 114 1 0.42379999 2.1904061973 6.5697750458 -2.2390739233
342 114 1 0.42379999 2.6439941922 5.3607386126 -3.2386314086
343 115 2 -0.84759998 -7.2271857897 -1.8118148036 -4.6330152894
344 115 1 0.42379999 -7.8496169411 -2.5642686366 -4.4176256634
345 115 1 0.42379999 -7.7336628824 -1.0807666602 -5.090234675
346 116 2 -0.84759998 -3.5080590501 1.5834423558 7.9966919678
347 116 1 0.42379999 -4.3826355236 1.2659722008 8.3632007571
348 116 1 0.42379999 -2.7842872109 0.946828628 8.2629198521
349 117 2 -0.84759998 -7.1975610467 -9.3495291801 7.2492922474
350 117 1 0.42379999 -7.8359865069 -8.6133957869 7.4740600368
351 117 1 0.42379999 -6.6461867805 -9.0827730937 6.4588318695
352 118 2 -0.84759998 -8.5557366267 4.0701528832 -1.9591577693
353 118 1 0.42379999 -7.7634864566 4.2589659929 -1.3789084457
354 118 1 0.42379999 -9.305908698 3.7230040314 -1.3963704755
355 119 2 -0.84759998 -9.04561582 -2.5916493246 -2.4750430011
356 119 1 0.42379999 -8.469659909 -1.7749505693 -2.5107911697
357 119 1 0.42379999 -8.8346957924 -3.1123054661 -1.6477402002
358 120 2 -0.84759998 -6.047031862 4.6845177383 -3.9172774474
359 120 1 0.42379999 -5.5119024164 4.0974407446 -4.5247122833
360 120 1 0.42379999 -6.6937095087 5.2223950631 -4.4581064452
361 121 2 -0.84759998 6.3044082507 7.9700637421 -7.4834326106
362 121 1 0.42379999 5.4302984417 7.4850045199 -7.50891972
363 121 1 0.42379999 7.0522646258 7.3152862376 -7.5928732884
364 122 2 -0.84759998 6.9270200838 -7.3539303545 -7.3965370868
365 122 1 0.42379999 7.649976744 -7.4177718827 -8.0844745308
366 122 1 0.42379999 7.3202610889 -7.0571825093 -6.5263059517
367 123 2 -0.84759998 1.7691834573 -8.2331223671 -3.6782200112
368 123 1 0.42379999 1.0083968505 -8.8261707381 -3.4145964756
369 123 1 0.42379999 1.4299027631 -7.4951573503 -4.261569173
370 124 2 -0.84759998 6.8835913466 -7.0174562471 3.7528038469
371 124 1 0.42379999 6.2698315243 -7.4619785393 4.4052598318
372 124 1 0.42379999 7.8278016889 -7.1055254137 4.0701532623
373 125 2 -0.84759998 7.9563598407 -1.5998852822 7.798531026
374 125 1 0.42379999 7.1017077793 -1.2301904549 8.1630794983
375 125 1 0.42379999 8.7131524271 -1.3458113593 8.4007863064
376 126 2 -0.84759998 -4.9607591001 6.8149835646 3.1576839554
377 126 1 0.42379999 -4.875124351 5.8341462233 2.982684528
378 126 1 0.42379999 -4.1233303145 7.1510174701 3.5887225192
379 127 2 -0.84759998 -5.5165768045 -7.6931775841 2.2565686899
380 127 1 0.42379999 -6.3106630401 -7.1209533557 2.0516626559
381 127 1 0.42379999 -4.6810408297 -7.1539798737 2.1509966102
382 128 2 -0.84759998 -2.7444984126 -3.3675707037 -7.5344227777
383 128 1 0.42379999 -3.3595425432 -3.7995746468 -6.874806745
384 128 1 0.42379999 -3.2702988607 -3.0558598831 -8.3258583424
385 129 2 -0.84759998 9.2211012096 7.0982230061 -3.7978523771
386 129 1 0.42379999 9.7135182292 7.7206742541 -3.1895104317
387 129 1 0.42379999 8.6775543176 7.6285831089 -4.4484482098
388 130 2 -0.84759998 5.9099961513 5.2797036448 -2.8543283854
389 130 1 0.42379999 5.1766329872 5.7249070089 -2.3405459079
390 130 1 0.42379999 6.4685556819 4.7321189306 -2.2313017155
391 131 2 -0.84759998 1.588385922 -2.3336190828 -8.0900291276
392 131 1 0.42379999 1.8656918946 -1.4823949397 -7.644474579
393 131 1 0.42379999 1.7128508071 -2.2483012327 -9.0785782446
394 132 2 -0.84759998 8.7672885405 -5.4169218049 -5.1805438107
395 132 1 0.42379999 8.9924138621 -4.4630357325 -4.98199923
396 132 1 0.42379999 7.7815871573 -5.5540857807 -5.0826723294
397 133 2 -0.84759998 -10.3268715937 8.6268905712 -1.8641993344
398 133 1 0.42379999 -10.695099444 9.4475340935 -1.4272182597
399 133 1 0.42379999 -9.838108329 8.0786699109 -1.1855502508
400 134 2 -0.84759998 -1.3115324374 2.832891919 -6.2381252705
401 134 1 0.42379999 -1.443623258 3.6127787794 -6.8499491831
402 134 1 0.42379999 -1.9006433682 2.0785232388 -6.5277391609
403 135 2 -0.84759998 -3.5897359534 7.7834142204 -7.4714409038
404 135 1 0.42379999 -4.0456941763 7.0840418495 -8.0218774448
405 135 1 0.42379999 -4.2618096306 8.2383046115 -6.8871535562
406 136 2 -0.84759998 0.9915737615 -8.5712196772 -0.9221544943
407 136 1 0.42379999 0.7054114725 -9.2770553279 -0.2741520418
408 136 1 0.42379999 0.5457791548 -7.706354958 -0.6913381471
409 137 2 -0.84759998 -4.1724774154 -4.0660854706 -2.7072743453
410 137 1 0.42379999 -5.1345909905 -3.8406197841 -2.8605802254
411 137 1 0.42379999 -3.9168233976 -4.843887751 -3.2814386386
412 138 2 -0.84759998 5.0609514605 8.0943645619 1.2970309125
413 138 1 0.42379999 5.8966844835 8.1386257357 0.7496816065
414 138 1 0.42379999 4.5738793988 7.2450229273 1.0936111631
415 139 2 -0.84759998 4.7621170483 -3.7217014731 9.0158947911
416 139 1 0.42379999 4.139022462 -4.0926382798 9.7044868489
417 139 1 0.42379999 5.5349758511 -4.344764303 8.8955536882
418 140 2 -0.84759998 3.5221132812 -9.8754815525 -6.2965994609
419 140 1 0.42379999 4.5016773741 -9.8039663644 -6.4845881989
420 140 1 0.42379999 3.0861022915 -8.9902674996 -6.458742908
421 141 2 -0.84759998 0.7322876564 -0.9270928879 2.9276317441
422 141 1 0.42379999 0.4337290755 -1.7884898828 3.3385550835
423 141 1 0.42379999 1.6694630917 -0.7282353634 3.214263718
424 142 2 -0.84759998 0.2766748858 -2.1993055712 0.5845777386
425 142 1 0.42379999 -0.5546262297 -2.0552942089 0.0477358785
426 142 1 0.42379999 0.1455428844 -2.9764967134 1.2000274332
427 143 2 -0.84759998 7.4369645602 9.5148909166 2.9123927406
428 143 1 0.42379999 7.6953895244 8.6766332491 3.3925391982
429 143 1 0.42379999 8.1196156068 9.7214822097 2.2114593728
430 144 2 -0.84759998 -6.2287772811 4.2184143529 2.1778510778
431 144 1 0.42379999 -6.9674821785 3.8225322076 1.6323307742
432 144 1 0.42379999 -5.581626528 4.6843194198 1.5744205752
433 145 2 -0.84759998 4.116612603 9.6734818627 -9.9281450898
434 145 1 0.42379999 3.8989999685 10.199581052 -9.1060353744
435 145 1 0.42379999 3.7164152244 10.1226473788 -10.7269519484
436 146 2 -0.84759998 -10.2412819068 5.6375001673 -8.7059798334
437 146 1 0.42379999 -10.928321591 5.2159289963 -9.297802628
438 146 1 0.42379999 -9.4125504408 5.0778537513 -8.7061952633
439 147 2 -0.84759998 -1.1547114575 8.9710299694 4.2402453592
440 147 1 0.42379999 -1.9641405803 8.4488237714 3.9716840405
441 147 1 0.42379999 -0.4926151528 8.3599417376 4.6740652023
442 148 2 -0.84759998 -2.4282839133 -6.0558010412 -6.0821925042
443 148 1 0.42379999 -3.4001306944 -5.8345196645 -6.0012704025
444 148 1 0.42379999 -2.324455842 -6.9384183583 -6.5406752226
445 149 2 -0.84759998 -2.650803319 -4.3788393039 6.8046288254
446 149 1 0.42379999 -2.9846581494 -3.8208487531 6.0449002572
447 149 1 0.42379999 -1.6509695886 -4.36384314 6.8150031482
448 150 2 -0.84759998 0.7884051467 1.8634971639 10.3370899925
449 150 1 0.42379999 0.698546339 2.5645465266 9.6296614196
450 150 1 0.42379999 1.4172941454 1.1520985246 10.0233853489
451 151 2 -0.84759998 7.1395794354 7.4811401527 10.2118916113
452 151 1 0.42379999 7.242820134 8.2551361669 9.5871744528
453 151 1 0.42379999 7.4593281689 7.7428571342 11.1225314793
454 152 2 -0.84759998 -1.6806066783 0.9712478768 0.4638883293
455 152 1 0.42379999 -1.8979824147 0.6691206577 1.3920407589
456 152 1 0.42379999 -2.525979776 1.200515759 -0.0185850523
457 153 2 -0.84759998 -1.5349019588 4.7727633189 7.3206400716
458 153 1 0.42379999 -0.9386916768 4.727183015 6.5191067064
459 153 1 0.42379999 -2.4007890288 4.3152170706 7.1184248083
460 154 2 -0.84759998 -6.6221904962 4.4231873588 5.1777759483
461 154 1 0.42379999 -7.5711408709 4.3220048459 5.4765321791
462 154 1 0.42379999 -6.1745429038 5.1313199543 5.7238161117
463 155 2 -0.84759998 -9.862093932 -1.2937340005 5.0398401383
464 155 1 0.42379999 -10.4417666112 -0.7095099752 5.6078734765
465 155 1 0.42379999 -10.4344530068 -1.8240745393 4.4144250742
466 156 2 -0.84759998 9.4669130562 4.4377435942 1.5481769518
467 156 1 0.42379999 10.1961742141 4.5442750441 2.2240683733
468 156 1 0.42379999 8.8617098454 5.2330671457 1.5826664016
469 157 2 -0.84759998 -7.5562585595 -2.1220974205 2.7798141875
470 157 1 0.42379999 -6.8814258207 -1.5544259479 2.3082742912
471 157 1 0.42379999 -8.4222910434 -2.0944211753 2.2805930317
472 158 2 -0.84759998 -6.4562583575 -4.6236400125 -0.6468585365
473 158 1 0.42379999 -7.1513040814 -4.5973874638 0.0716275423
474 158 1 0.42379999 -5.5785240541 -4.8947193407 -0.2517655215
475 159 2 -0.84759998 -4.0781614131 1.5738397995 -3.5480334855
476 159 1 0.42379999 -4.5682011277 0.83387593 -4.0088095157
477 159 1 0.42379999 -4.704033919 2.0580337429 -2.9366090573
478 160 2 -0.84759998 -9.1923709669 9.4412562433 6.4698640259
479 160 1 0.42379999 -9.389377106 8.460876755 6.4631827026
480 160 1 0.42379999 -9.6967485087 9.8775157039 7.2150358036
481 161 2 -0.84759998 -3.8434122399 0.9772269044 -9.6284873068
482 161 1 0.42379999 -4.791736486 0.6863820647 -9.7553352609
483 161 1 0.42379999 -3.8181001185 1.9593424523 -9.4419173547
484 162 2 -0.84759998 -6.9266318984 -7.8210948613 -5.5762254509
485 162 1 0.42379999 -6.4141228959 -8.4081113813 -4.9495308462
486 162 1 0.42379999 -7.8562158305 -8.174984148 -5.6793568527
487 163 2 -0.84759998 6.6493236226 -0.7420823777 4.9468922488
488 163 1 0.42379999 7.1415894273 -0.1631697419 5.5969188156
489 163 1 0.42379999 7.2992854366 -1.1519118612 4.306900503